 VARIABLES = "X", "Y", "q1", "q2", "q3", "q4","Pressure","Mach"
ZONE I=54 J=19 DATAPACKING=BLOCK VARLOCATION=([3,4,5,6,7,8]=CELLCENTERED)
-0.20389 -0.102 0 0.1019 0.20382 0.30578 0.40778 0.50982 0.61192 0.71406 0.81624 0.91845 1.0207 1.1229 1.2252 1.3274 1.4286 1.5315 1.6365 1.7442 1.8552 1.9854 2.0827 2.1873 2.2817 2.3692 2.4521 2.5324 2.6139 2.6986 2.7882 2.8843 2.9799 3.015 3.2119 3.3298 3.4427 3.5529 3.6613 3.7685 3.8746 3.9799 4.0845 4.1883 4.2914 4.3937 4.4955 4.5969 4.6979 4.7986 4.8993 5 5.1012 5.2019 -0.20389 -0.10195 0 0.10195 0.20391 0.3059 0.40793 0.51 0.6121 0.71425 0.81644 0.91866 1.0209 1.1232 1.2255 1.3278 1.4301 1.5335 1.6385 1.7456 1.8552 1.9575 2.0733 2.1772 2.273 2.3633 2.4498 2.5341 2.6193 2.7071 2.7984 2.8948 2.9983 3.1277 3.2166 3.3314 3.4432 3.5527 3.6607 3.7675 3.8734 3.9785 4.0829 4.1866 4.2896 4.3921 4.4941 4.5957 4.6969 4.798 4.899 5 5.1009 5.2019 -0.2038 -0.1019 0 0.1019 0.20382 0.30578 0.40778 0.50982 0.61192 0.71406 0.81624 0.91845 1.0207 1.1229 1.2252 1.3274 1.4286 1.5315 1.6365 1.7441 1.8552 2 2.1011 2.1984 2.2872 2.3712 2.4523 2.5323 2.6124 2.694 2.7785 2.8677 2.964 3 3.2119 3.3299 3.4427 3.5529 3.6613 3.7685 3.8746 3.9799 4.0845 4.1883 4.2914 4.3937 4.4955 4.5969 4.6979 4.7986 4.8993 5 5.1007 5.2014 -0.20389 -0.10195 0 0.10195 0.20391 0.3059 0.40793 0.51 0.6121 0.71425 0.81644 0.91866 1.0209 1.1232 1.2255 1.3278 1.4301 1.5335 1.6385 1.7456 1.8552 1.9672 2.0833 2.1842 2.2769 2.3648 2.45 2.534 2.6181 2.7037 2.7921 2.8852 2.9856 3.0983 3.2166 3.3314 3.4432 3.5527 3.6607 3.7675 3.8734 3.9785 4.0829 4.1866 4.2896 4.3921 4.4941 4.5957 4.6969 4.798 4.899 5 5.101 5.2019 -0.20397 -0.10199 0 0.10199 0.20399 0.30601 0.40806 0.51015 0.61227 0.71443 0.81663 0.91887 1.0211 1.1235 1.2259 1.3284 1.4311 1.5347 1.6395 1.7459 1.8539 1.9631 2.0722 2.1735 2.2687 2.3597 2.4482 2.5356 2.6231 2.712 2.8035 2.8991 3.0007 3.1095 3.2222 3.3342 3.4444 3.5532 3.6606 3.767 3.8726 3.9774 4.0816 4.1852 4.2882 4.3908 4.4929 4.5947 4.6962 4.7975 4.8988 5 5.1012 5.2024 -0.20404 -0.10202 0 0.10202 0.20405 0.3061 0.40818 0.51029 0.61243 0.7146 0.81681 0.91905 1.0213 1.1237 1.2261 1.3288 1.4317 1.5353 1.6398 1.7454 1.8519 1.9587 2.0644 2.1656 2.2623 2.3557 2.4469 2.5371 2.6275 2.719 2.8129 2.9102 3.012 3.1186 3.2279 3.3375 3.4463 3.5541 3.661 3.7669 3.8721 3.9767 4.0807 4.1841 4.2871 4.3897 4.4919 4.5938 4.6955 4.7971 4.8986 5 5.1014 5.2029 -0.20409 -0.10204 0 0.10204 0.2041 0.30618 0.40828 0.51041 0.61257 0.71476 0.81697 0.91922 1.0215 1.1239 1.2263 1.329 1.4319 1.5354 1.6396 1.7444 1.8497 1.9548 2.0587 2.1597 2.2574 2.3526 2.446 2.5386 2.6313 2.725 2.8207 2.9192 3.021 3.1261 3.2333 3.3411 3.4486 3.5555 3.6617 3.7671 3.872 3.9762 4.08 4.1833 4.2862 4.3888 4.491 4.5931 4.6949 4.7967 4.8984 5 5.1016 5.2033 -0.20413 -0.10207 0 0.10207 0.20415 0.30625 0.40838 0.51053 0.61271 0.71491 0.81712 0.91937 1.0216 1.124 1.2264 1.3291 1.4319 1.5352 1.6389 1.7431 1.8474 1.9515 2.0544 2.1552 2.2537 2.3503 2.4455 2.54 2.6346 2.7302 2.8273 2.9265 3.0283 3.1325 3.2383 3.3447 3.4511 3.5572 3.6627 3.7676 3.8721 3.976 4.0795 4.1827 4.2855 4.388 4.4903 4.5924 4.6944 4.7963 4.8982 5 5.1018 5.2037 -0.20417 -0.10209 0 0.10209 0.20419 0.30632 0.40847 0.51065 0.61285 0.71506 0.81727 0.9195 1.0218 1.1241 1.2264 1.329 1.4317 1.5348 1.6381 1.7417 1.8453 1.9486 2.0509 2.1518 2.2509 2.3486 2.4452 2.5414 2.6376 2.7346 2.8328 2.9327 3.0345 3.1381 3.2429 3.3483 3.4538 3.559 3.6639 3.7684 3.8724 3.976 4.0793 4.1822 4.2849 4.3874 4.4897 4.5919 4.694 4.796 4.898 5 5.102 5.204 -0.2042 -0.1021 0 0.1021 0.20422 0.30638 0.40856 0.51077 0.61299 0.71521 0.81742 0.91963 1.0218 1.1241 1.2264 1.3288 1.4314 1.5342 1.6372 1.7403 1.8434 1.9461 2.0481 2.1491 2.2488 2.3474 2.4452 2.5427 2.6402 2.7384 2.8375 2.938 3.0399 3.143 3.2471 3.3517 3.4565 3.561 3.6653 3.7693 3.8729 3.9762 4.0792 4.1819 4.2845 4.3869 4.4891 4.5914 4.6935 4.7957 4.8978 5 5.1022 5.2043 -0.20422 -0.10211 0 0.10211 0.20425 0.30644 0.40866 0.5109 0.61315 0.71538 0.81758 0.91976 1.0219 1.1241 1.2263 1.3285 1.4309 1.5334 1.6361 1.7388 1.8415 1.9439 2.0458 2.1469 2.2471 2.3465 2.4453 2.5439 2.6426 2.7418 2.8417 2.9426 3.0446 3.1475 3.2511 3.3551 3.4592 3.5632 3.6669 3.7704 3.8736 3.9765 4.0792 4.1817 4.2841 4.3864 4.4886 4.5909 4.6931 4.7954 4.8977 5 5.1023 5.2046 -0.20423 -0.10212 0 0.10212 0.20428 0.30649 0.40876 0.51105 0.61333 0.71558 0.81777 0.91991 1.022 1.124 1.2261 1.3282 1.4303 1.5326 1.635 1.7374 1.8398 1.942 2.0438 2.1451 2.2457 2.3458 2.4455 2.5451 2.6448 2.7448 2.8454 2.9468 3.0489 3.1517 3.2549 3.3584 3.462 3.5654 3.6687 3.7716 3.8744 3.9769 4.0793 4.1816 4.2838 4.3859 4.4881 4.5904 4.6927 4.7951 4.8975 5 5.1025 5.205 -0.20421 -0.10211 0 0.10211 0.20429 0.30655 0.40887 0.51122 0.61355 0.71582 0.81801 0.92009 1.0221 1.124 1.2259 1.3278 1.4297 1.5317 1.6338 1.736 1.8381 1.9402 2.042 2.1435 2.2446 2.3453 2.4458 2.5462 2.6468 2.7476 2.8488 2.9506 3.0529 3.1556 3.2586 3.3617 3.4648 3.5678 3.6705 3.773 3.8753 3.9775 4.0795 4.1815 4.2835 4.3855 4.4876 4.5898 4.6922 4.7947 4.8973 5 5.1027 5.2054 -0.20415 -0.10208 0 0.10208 0.20427 0.3066 0.40901 0.51144 0.61383 0.71613 0.8183 0.92033 1.0222 1.124 1.2257 1.3273 1.429 1.5307 1.6325 1.7345 1.8365 1.9384 2.0403 2.1421 2.2436 2.3449 2.4462 2.5473 2.6486 2.7502 2.852 2.9542 3.0567 3.1594 3.2622 3.365 3.4677 3.5702 3.6725 3.7745 3.8763 3.9781 4.0797 4.1814 4.2831 4.385 4.487 4.5892 4.6916 4.7942 4.8971 5 5.1029 5.2059 -0.20401 -0.102 0 0.102 0.20423 0.30664 0.40917 0.51171 0.61419 0.71653 0.81869 0.92065 1.0224 1.124 1.2254 1.3268 1.4282 1.5297 1.6312 1.7329 1.8348 1.9367 2.0387 2.1407 2.2427 2.3446 2.4465 2.5484 2.6504 2.7526 2.855 2.9576 3.0604 3.1632 3.2659 3.3684 3.4707 3.5728 3.6746 3.7761 3.8775 3.9787 4.08 4.1813 4.2827 4.3844 4.4863 4.5885 4.6909 4.7937 4.8967 5 5.1033 5.2065 -0.20369 -0.10184 0 0.10184 0.20412 0.30668 0.40936 0.51206 0.61465 0.71705 0.81921 0.92108 1.0227 1.1241 1.2252 1.3263 1.4274 1.5285 1.6298 1.7313 1.833 1.9349 2.037 2.1393 2.2417 2.3442 2.4468 2.5494 2.6522 2.7551 2.8581 2.9611 3.0641 3.167 3.2696 3.372 3.4739 3.5755 3.6768 3.7778 3.8787 3.9794 4.0802 4.1811 4.2822 4.3836 4.4854 4.5875 4.69 4.793 4.8963 5 5.1037 5.2075 -0.203 -0.1015 0 0.1015 0.20393 0.3067 0.40962 0.51252 0.61526 0.71774 0.81988 0.92165 1.0231 1.1242 1.2251 1.3258 1.4265 1.5273 1.6282 1.7295 1.831 1.933 2.0352 2.1378 2.2407 2.3438 2.447 2.5504 2.6539 2.7575 2.8611 2.9646 3.068 3.171 3.2736 3.3757 3.4773 3.5785 3.6792 3.7797 3.8799 3.9801 4.0804 4.1808 4.2816 4.3827 4.4843 4.5864 4.6889 4.792 4.8956 5 5.1044 5.2089 -0.20369 -0.10184 0 0.10184 0.20412 0.30668 0.40936 0.51206 0.61465 0.71705 0.81921 0.92108 1.0227 1.1241 1.2252 1.3263 1.4274 1.5285 1.6298 1.7313 1.833 1.9349 2.037 2.1393 2.2417 2.3442 2.4468 2.5494 2.6522 2.7551 2.8581 2.9611 3.0641 3.167 3.2696 3.372 3.4739 3.5755 3.6768 3.7778 3.8787 3.9794 4.0802 4.1811 4.2822 4.3836 4.4854 4.5875 4.69 4.793 4.8963 5 5.1037 5.2075 -0.203 -0.1015 0 0.1015 0.20393 0.3067 0.40962 0.51252 0.61526 0.71774 0.81988 0.92165 1.0231 1.1242 1.2251 1.3258 1.4265 1.5273 1.6283 1.7295 1.8311 1.933 2.0352 2.1378 2.2407 2.3438 2.447 2.5504 2.6539 2.7574 2.8611 2.9646 3.0679 3.171 3.2736 3.3757 3.4773 3.5785 3.6792 3.7797 3.8799 3.9801 4.0804 4.1808 4.2816 4.3827 4.4843 4.5864 4.6889 4.792 4.8956 5 5.103 5.2075 
-0.14283 -0.14283 -0.1428 -0.14283 -0.14285 -0.14288 -0.1429 -0.14293 -0.14296 -0.14301 -0.14307 -0.14316 -0.14328 -0.14345 -0.14369 -0.14404 -0.14456 -0.14535 -0.14664 -0.14891 -0.15356 -0.15252 -0.09116 -0.056614 -0.033968 -0.019856 -0.01286 -0.012262 -0.017914 -0.030185 -0.049924 -0.078655 -0.12603 -0.15088 -0.15059 -0.1473 -0.14565 -0.1447 -0.14411 -0.14373 -0.14347 -0.14329 -0.14316 -0.14307 -0.14301 -0.14296 -0.14293 -0.1429 -0.14287 -0.14285 -0.14283 -0.1428 -0.1428 -0.1428 -0.071429 -0.071416 -0.071402 -0.071416 -0.071427 -0.071438 -0.07145 -0.071464 -0.071482 -0.071505 -0.071537 -0.07158 -0.071641 -0.071726 -0.071847 -0.072021 -0.072279 -0.072675 -0.073321 -0.074466 -0.076799 -0.078988 -0.033665 -0.0012574 0.021142 0.035578 0.04291 0.043543 0.037601 0.024975 0.0053032 -0.02221 -0.059758 -0.075727 -0.075297 -0.073655 -0.072828 -0.072353 -0.072057 -0.071864 -0.071734 -0.071644 -0.071582 -0.071537 -0.071505 -0.071481 -0.071463 -0.071449 -0.071437 -0.071425 -0.071413 -0.071398 -0.071383 -0.071398 0 0 0 0 0 0 0 0 0 0 0 0 0 0 0 0 0 0 0 0 0 0 0.03124 0.05837 0.078478 0.09192 0.098881 0.099485 0.093827 0.081995 0.064109 0.04039 0.0113 0 0 0 0 0 0 0 0 0 0 0 0 0 0 0 0 0 0 0 0 0 0.071402 0.071416 0.071402 0.071416 0.071427 0.071438 0.07145 0.071464 0.071482 0.071505 0.071537 0.07158 0.071641 0.071726 0.071847 0.072021 0.072279 0.072675 0.073321 0.074466 0.076799 0.08267 0.10189 0.1219 0.13803 0.14919 0.15506 0.15557 0.15078 0.1409 0.12636 0.10816 0.089259 0.079361 0.075297 0.073655 0.072828 0.072353 0.072057 0.071864 0.071734 0.071644 0.071582 0.071537 0.071505 0.071481 0.071463 0.071449 0.071437 0.071425 0.071413 0.071398 0.071413 0.071398 0.14281 0.14283 0.14281 0.14283 0.14285 0.14288 0.1429 0.14293 0.14296 0.14301 0.14307 0.14315 0.14327 0.14343 0.14367 0.144 0.1445 0.14525 0.14644 0.14843 0.15203 0.15904 0.17243 0.18719 0.19984 0.20888 0.2137 0.21412 0.21015 0.20207 0.19049 0.17664 0.16314 0.15432 0.14949 0.14694 0.1455 0.14463 0.14407 0.1437 0.14345 0.14328 0.14316 0.14307 0.14301 0.14296 0.14292 0.1429 0.14287 0.14285 0.14283 0.1428 0.14283 0.1428 0.21421 0.21425 0.21421 0.21425 0.21428 0.21431 0.21434 0.21438 0.21443 0.2145 0.21459 0.21471 0.21488 0.21511 0.21544 0.21591 0.2166 0.21762 0.21918 0.22166 0.2257 0.23232 0.24235 0.25344 0.26327 0.27048 0.27438 0.2747 0.27146 0.26496 0.25582 0.24521 0.23503 0.2275 0.22268 0.21973 0.21792 0.21676 0.216 0.21549 0.21513 0.21489 0.21471 0.21459 0.2145 0.21443 0.21438 0.21434 0.21431 0.21427 0.21424 0.2142 0.21424 0.2142 0.28562 0.28567 0.28562 0.28567 0.28571 0.28575 0.28579 0.28584 0.2859 0.28598 0.28609 0.28624 0.28645 0.28674 0.28714 0.28772 0.28854 0.28974 0.29151 0.29416 0.29814 0.30397 0.31177 0.32025 0.32789 0.33358 0.33669 0.33693 0.33432 0.32913 0.32194 0.31373 0.30582 0.2995 0.29502 0.29202 0.29004 0.28871 0.28781 0.2872 0.28677 0.28647 0.28625 0.2861 0.28598 0.2859 0.28584 0.28579 0.28574 0.2857 0.28566 0.28561 0.28566 0.28561 0.35704 0.35709 0.35704 0.35709 0.35713 0.35718 0.35723 0.35728 0.35736 0.35745 0.35758 0.35775 0.35798 0.35831 0.35877 0.3594 0.3603 0.36158 0.36341 0.36602 0.3697 0.37469 0.38087 0.38744 0.39338 0.39785 0.40031 0.40049 0.3984 0.39428 0.38863 0.38221 0.37597 0.37071 0.36672 0.36386 0.36186 0.36047 0.3595 0.35882 0.35834 0.358 0.35776 0.35758 0.35745 0.35736 0.35728 0.35722 0.35717 0.35712 0.35707 0.35702 0.35707 0.35702 0.42845 0.42851 0.42845 0.42851 0.42856 0.42861 0.42866 0.42872 0.4288 0.4289 0.42904 0.42922 0.42947 0.42982 0.4303 0.43096 0.43188 0.43316 0.43494 0.43738 0.44065 0.44483 0.44976 0.4549 0.45953 0.46303 0.46496 0.46509 0.46343 0.46018 0.45574 0.45069 0.44572 0.44138 0.43791 0.4353 0.4334 0.43203 0.43105 0.43035 0.42985 0.42949 0.42923 0.42904 0.42891 0.4288 0.42872 0.42866 0.4286 0.42855 0.42849 0.42843 0.42849 0.42843 0.49987 0.49993 0.49987 0.49993 0.49998 0.50004 0.50009 0.50016 0.50023 0.50034 0.50048 0.50066 0.50092 0.50126 0.50174 0.50239 0.50329 0.50451 0.50616 0.50834 0.51116 0.51462 0.51856 0.52258 0.52619 0.52892 0.53043 0.53052 0.52921 0.52665 0.52316 0.5192 0.51524 0.51168 0.50874 0.50643 0.50469 0.50341 0.50247 0.50179 0.50129 0.50094 0.50067 0.50048 0.50034 0.50024 0.50016 0.50009 0.50003 0.49997 0.49991 0.49985 0.49991 0.49985 0.57129 0.57136 0.57129 0.57136 0.57141 0.57146 0.57152 0.57158 0.57166 0.57176 0.57189 0.57207 0.57231 0.57265 0.5731 0.57371 0.57454 0.57565 0.57711 0.579 0.58137 0.58419 0.58731 0.59045 0.59325 0.59537 0.59653 0.5966 0.59557 0.59357 0.59085 0.58774 0.5846 0.58173 0.57928 0.57731 0.57579 0.57463 0.57377 0.57314 0.57267 0.57233 0.57208 0.5719 0.57176 0.57166 0.57158 0.57151 0.57146 0.5714 0.57134 0.57127 0.57134 0.57127 0.64272 0.64278 0.64272 0.64278 0.64284 0.64289 0.64294 0.643 0.64307 0.64316 0.64328 0.64345 0.64367 0.64397 0.64438 0.64492 0.64565 0.64661 0.64786 0.64944 0.65137 0.65361 0.65605 0.65847 0.66062 0.66224 0.66312 0.66317 0.66237 0.66083 0.65874 0.65634 0.65389 0.65161 0.64963 0.648 0.64671 0.64572 0.64497 0.64441 0.64399 0.64368 0.64346 0.64329 0.64316 0.64307 0.643 0.64293 0.64288 0.64283 0.64277 0.6427 0.64277 0.6427 0.71415 0.71421 0.71415 0.71421 0.71426 0.71431 0.71435 0.71441 0.71447 0.71455 0.71465 0.71479 0.71499 0.71524 0.71559 0.71604 0.71665 0.71744 0.71845 0.71971 0.72122 0.72295 0.7248 0.72663 0.72823 0.72944 0.7301 0.73013 0.72953 0.72837 0.72679 0.72498 0.72312 0.72137 0.71983 0.71854 0.7175 0.71669 0.71607 0.71561 0.71526 0.715 0.7148 0.71466 0.71455 0.71447 0.71441 0.71435 0.7143 0.71426 0.7142 0.71413 0.7142 0.71413 0.78559 0.78565 0.78559 0.78565 0.78569 0.78573 0.78577 0.78581 0.78586 0.78592 0.78601 0.78612 0.78627 0.78647 0.78674 0.7871 0.78756 0.78817 0.78893 0.78987 0.79098 0.79224 0.79357 0.79488 0.79602 0.79688 0.79734 0.79736 0.79693 0.7961 0.79498 0.79368 0.79234 0.79106 0.78993 0.78898 0.7882 0.78759 0.78711 0.78675 0.78648 0.78628 0.78612 0.78601 0.78593 0.78586 0.78581 0.78577 0.78573 0.78569 0.78564 0.78557 0.78564 0.78557 0.85704 0.85709 0.85704 0.85709 0.85713 0.85715 0.85718 0.85721 0.85724 0.85729 0.85735 0.85742 0.85753 0.85767 0.85785 0.85809 0.85841 0.85882 0.85932 0.85995 0.86068 0.8615 0.86236 0.8632 0.86394 0.86449 0.86479 0.8648 0.86452 0.86398 0.86326 0.86241 0.86155 0.86072 0.85998 0.85934 0.85883 0.85842 0.8581 0.85786 0.85767 0.85753 0.85743 0.85735 0.85729 0.85724 0.85721 0.85718 0.85715 0.85712 0.85708 0.85702 0.85708 0.85702 0.9285 0.92854 0.9285 0.92854 0.92856 0.92858 0.92859 0.92861 0.92862 0.92865 0.92868 0.92872 0.92877 0.92884 0.92893 0.92905 0.92921 0.92942 0.92967 0.92998 0.93034 0.93075 0.93117 0.93159 0.93195 0.93222 0.93237 0.93237 0.93223 0.93197 0.93161 0.93119 0.93076 0.93035 0.92999 0.92968 0.92942 0.92922 0.92906 0.92893 0.92884 0.92877 0.92872 0.92868 0.92865 0.92862 0.92861 0.92859 0.92858 0.92856 0.92854 0.92849 0.92854 0.92849 1 1 1 1 1 1 1 1 1 1 1 1 1 1 1 1 1 1 1 1 1 1 1 1 1 1 1 1 1 1 1 1 1 1 1 1 1 1 1 1 1 1 1 1 1 1 1 1 1 1 1 1 1 1 1.0714 1.0715 1.0715 1.0715 1.0714 1.0714 1.0714 1.0714 1.0714 1.0714 1.0713 1.0713 1.0712 1.0712 1.0711 1.0709 1.0708 1.0706 1.0703 1.07 1.0697 1.0693 1.0688 1.0684 1.0681 1.0678 1.0676 1.0676 1.0678 1.068 1.0684 1.0688 1.0692 1.0696 1.07 1.0703 1.0706 1.0708 1.0709 1.0711 1.0712 1.0712 1.0713 1.0713 1.0714 1.0714 1.0714 1.0714 1.0714 1.0714 1.0715 1.0715 1.0716 1.0715 1.1429 1.1429 1.143 1.1429 1.1429 1.1428 1.1428 1.1428 1.1428 1.1427 1.1426 1.1426 1.1425 1.1423 1.1421 1.1419 1.1416 1.1412 1.1407 1.14 1.1393 1.1385 1.1377 1.1368 1.1361 1.1356 1.1353 1.1353 1.1355 1.1361 1.1368 1.1376 1.1385 1.1393 1.14 1.1406 1.1412 1.1416 1.1419 1.1421 1.1423 1.1425 1.1426 1.1426 1.1427 1.1428 1.1428 1.1428 1.1428 1.1429 1.1429 1.143 1.143 1.143 
1 1 0.923 0.96925 0.96784 0.93801 1.0983 1.1394 1.1942 1.0454 0.91525 0.85337 0.96875 1.071 1.0863 0.95888 0.93159 0.95732 1.0163 1.0531 1.0728 1.1585 1.055 0.97419 0.95678 1.0132 1.0311 1.0511 0.99094 0.92219 4.4914 -869.78 NaN NaN NaN NaN NaN NaN NaN NaN NaN NaN NaN NaN NaN NaN NaN NaN NaN NaN NaN 1 1 1 1 0.94303 1.0721 1.0766 0.89175 0.82112 0.77853 0.94367 1.0763 1.186 1.0542 0.92878 0.90608 1.0382 1.1704 1.1612 0.91533 0.6554 0.589 0.76933 0.99751 1.1675 1.1103 1.1558 0.90303 0.84382 1.0447 1.2726 1.3264 0.94965 -28.143 NaN NaN NaN NaN NaN NaN NaN NaN NaN NaN NaN NaN NaN NaN NaN NaN NaN NaN NaN 1 1 1.0033 1.0033 0.94303 1.0721 1.0766 0.89175 0.82112 0.77853 0.94367 1.0763 1.186 1.0542 0.92878 0.90608 1.0382 1.1704 1.1612 0.91533 0.6554 0.589 0.76933 0.99751 1.1675 1.1103 1.1558 0.90303 0.84382 1.0447 1.2726 1.3264 0.94965 -28.143 NaN NaN NaN NaN NaN NaN NaN NaN NaN NaN NaN NaN NaN NaN NaN NaN NaN NaN NaN NaN NaN 1.026 1.026 0.923 0.96925 0.96784 0.93801 1.0983 1.1394 1.1942 1.0454 0.91525 0.85337 0.96875 1.071 1.0863 0.95888 0.93159 0.95732 1.0163 1.0531 1.0728 1.1585 1.055 0.97419 0.95678 1.0132 1.0311 1.0511 0.99094 0.92219 4.4914 -869.78 NaN NaN NaN NaN NaN NaN NaN NaN NaN NaN NaN NaN NaN NaN NaN NaN NaN NaN NaN NaN NaN 1.0065 1.0065 0.92328 1.0795 1.0244 0.9279 0.95039 0.99599 1.1541 1.131 1.0692 0.92968 0.94512 0.98921 1.0102 0.99644 1.0022 0.90898 0.83699 0.82156 0.90174 1.1549 1.1411 1.0929 1.0442 0.9821 0.93916 1.0591 1.8136 123.87 NaN NaN NaN NaN NaN NaN NaN NaN NaN NaN NaN NaN NaN NaN NaN NaN NaN NaN NaN NaN NaN NaN NaN 0.99092 0.99092 1.0185 0.90437 0.89354 0.87199 1.0043 1.0731 1.1869 1.1557 1.0811 0.95078 0.95213 0.9922 1.0571 1.0042 0.94174 0.91356 0.9304 0.96587 1.0745 1.2002 1.1651 1.0712 0.93245 0.87509 0.91581 1.0054 1.2564 -1647.1 NaN NaN NaN NaN NaN NaN NaN NaN NaN NaN NaN NaN NaN NaN NaN NaN NaN NaN NaN NaN NaN NaN NaN 1.0156 1.0156 0.95189 0.93767 0.92089 0.82099 0.85911 0.92036 1.079 1.1423 1.1424 1.0269 0.97212 0.96025 1.0109 0.99015 0.92488 0.83445 0.77557 0.72282 0.80938 1.0339 1.1554 1.1707 1.0606 0.90304 0.81473 76.063 NaN NaN NaN NaN NaN NaN NaN NaN NaN NaN NaN NaN NaN NaN NaN NaN NaN NaN NaN NaN NaN NaN NaN NaN NaN 1.0165 1.0165 0.98266 0.97402 1.0082 1.0611 1.1334 1.1158 1.0544 0.93604 0.90316 0.93295 1.0081 1.036 1.0537 1.0129 1.0562 1.0786 1.083 1.0414 1.0382 1.0242 0.95043 0.90602 0.92746 0.94351 0.9056 -1064.5 NaN NaN NaN NaN NaN NaN NaN NaN NaN NaN NaN NaN NaN NaN NaN NaN NaN NaN NaN NaN NaN NaN NaN NaN NaN 1.0233 1.0233 0.96214 0.96582 0.9827 1.0084 1.1118 1.1873 1.1829 1.0381 0.93368 0.89047 0.94427 0.99375 1.0482 0.98359 0.95949 0.97685 1.0606 1.1355 1.1834 1.0953 0.96466 0.93617 0.95574 0.99122 NaN NaN NaN NaN NaN NaN NaN NaN NaN NaN NaN NaN NaN NaN NaN NaN NaN NaN NaN NaN NaN NaN NaN NaN NaN NaN NaN 0.95203 0.95203 1.1565 0.96565 0.91578 0.91026 0.98759 1.1397 1.2114 1.1675 1.0312 0.91156 0.89914 0.96658 1.1057 1.0822 0.9886 0.9451 1.0738 1.2468 1.3431 1.2772 1.1464 0.99845 0.90619 0.11237 NaN NaN NaN NaN NaN NaN NaN NaN NaN NaN NaN NaN NaN NaN NaN NaN NaN NaN NaN NaN NaN NaN NaN NaN NaN NaN NaN 0.91427 0.91427 1.2471 0.95318 0.90078 0.82355 0.87355 1.0137 1.1317 1.1544 1.0889 0.96447 0.91577 0.98338 1.1493 1.1296 0.97871 0.92749 0.97902 1.0174 1.083 1.1728 1.1757 1.0887 NaN NaN NaN NaN NaN NaN NaN NaN NaN NaN NaN NaN NaN NaN NaN NaN NaN NaN NaN NaN NaN NaN NaN NaN NaN NaN NaN NaN NaN 0.98966 0.98966 1.0163 0.98767 1.1184 1.1373 1.1184 1.0301 0.89424 0.82227 0.8578 0.97332 1.0418 1.0216 0.99717 1.0156 1.1292 1.1551 1.0572 0.92753 0.87185 0.86542 0.93869 0.99166 NaN NaN NaN NaN NaN NaN NaN NaN NaN NaN NaN NaN NaN NaN NaN NaN NaN NaN NaN NaN NaN NaN NaN NaN NaN NaN NaN NaN NaN 0.99526 0.99526 0.98906 1.0357 1.1313 1.2103 1.2654 1.2225 1.0167 0.83014 0.80944 0.9089 0.98514 0.99409 1.0122 1.0242 1.1301 1.136 1.1029 1.099 1.1231 1.0398 0.98169 NaN NaN NaN NaN NaN NaN NaN NaN NaN NaN NaN NaN NaN NaN NaN NaN NaN NaN NaN NaN NaN NaN NaN NaN NaN NaN NaN NaN NaN NaN 0.9325 0.9325 1.2082 1.1452 1.1056 1.1001 1.2035 1.3219 1.3303 1.2444 1.0674 0.9198 0.89333 0.93465 1.0508 1.0862 1.037 0.98241 1.171 1.4776 1.6239 1.5647 NaN NaN NaN NaN NaN NaN NaN NaN NaN NaN NaN NaN NaN NaN NaN NaN NaN NaN NaN NaN NaN NaN NaN NaN NaN NaN NaN NaN NaN NaN NaN 0.92233 0.92233 1.1913 1.1068 1.1411 1.0936 1.1476 1.2355 1.2837 1.2523 1.1059 0.92022 0.8598 0.9387 1.0441 1.0712 1.0321 0.98166 1.162 1.3303 1.3458 NaN NaN NaN NaN NaN NaN NaN NaN NaN NaN NaN NaN NaN NaN NaN NaN NaN NaN NaN NaN NaN NaN NaN NaN NaN NaN NaN NaN NaN NaN NaN NaN 0.96454 0.96454 1.0671 0.78202 1.1519 1.1382 1.1186 0.96555 0.7855 0.74811 0.79934 0.93845 1.0259 1.0239 0.91054 0.93408 1.1877 1.3927 1.2894 0.96491 0.72817 NaN NaN NaN NaN NaN NaN NaN NaN NaN NaN NaN NaN NaN NaN NaN NaN NaN NaN NaN NaN NaN NaN NaN NaN NaN NaN NaN NaN NaN NaN NaN NaN 1 1 1.0671 0.78202 1.1519 1.1382 1.1186 0.96555 0.7855 0.74811 0.79934 0.93845 1.0259 1.0239 0.91054 0.93408 1.1877 1.3927 1.2894 0.96491 0.72817 NaN NaN NaN NaN NaN NaN NaN NaN NaN NaN NaN NaN NaN NaN NaN NaN NaN NaN NaN NaN NaN NaN NaN NaN NaN NaN NaN NaN NaN NaN 1 1 1 1 1.1913 1.1068 1.1411 1.0936 1.1476 1.2355 1.2837 1.2523 1.1059 0.92022 0.8598 0.9387 1.0441 1.0712 1.0321 0.98166 1.162 1.3303 1.3458 NaN NaN NaN NaN NaN NaN NaN NaN NaN NaN NaN NaN NaN NaN NaN NaN NaN NaN NaN NaN NaN NaN NaN NaN NaN NaN NaN NaN NaN NaN 1 1 
0.3 0.3 0.30889 0.28403 0.20662 0.25784 0.29448 0.42538 0.4281 0.36187 0.19766 0.17537 0.20936 0.28144 0.28996 0.24677 0.17592 0.20662 0.28488 0.34253 0.37721 0.39259 0.38081 0.29909 0.23694 0.29625 0.43134 0.43723 0.30034 70790 -1.4619e+06 3.1242e+13 NaN NaN NaN NaN NaN NaN NaN NaN NaN NaN NaN NaN NaN NaN NaN NaN NaN NaN NaN 0.3 0.3 0.3 0.3 0.33991 0.37076 0.32857 0.24658 0.10026 0.14619 0.25759 0.45874 0.51367 0.44159 0.31066 0.29707 0.3456 0.36678 0.34762 0.27088 0.12364 0.049772 0.096887 0.2681 0.51622 0.68809 0.57899 0.41362 0.3178 0.4164 0.57979 0.53206 0.43808 -3.1739e+08 NaN NaN NaN NaN NaN NaN NaN NaN NaN NaN NaN NaN NaN NaN NaN NaN NaN NaN NaN 0.3 0.3 0.29295 0.29295 0.33991 0.37076 0.32857 0.24658 0.10026 0.14619 0.25759 0.45874 0.51367 0.44159 0.31066 0.29707 0.3456 0.36678 0.34762 0.27088 0.12364 0.049772 0.096887 0.17684 0.46121 0.68108 0.63213 0.43437 0.31829 0.42319 0.5769 0.49559 0.43188 -3.7776e+08 NaN NaN NaN NaN NaN NaN NaN NaN NaN NaN NaN NaN NaN NaN NaN NaN NaN NaN NaN NaN NaN 0.24368 0.24368 0.30889 0.28403 0.20662 0.25784 0.29448 0.42538 0.4281 0.36187 0.19766 0.17537 0.20936 0.28144 0.28996 0.24677 0.17592 0.20662 0.28488 0.34253 0.37721 0.34296 0.27477 0.25551 0.23663 0.31562 0.43328 0.44183 0.34977 91042 -3.1173e+06 -6.7211e+14 NaN NaN NaN NaN NaN NaN NaN NaN NaN NaN NaN NaN NaN NaN NaN NaN NaN NaN NaN NaN NaN 0.28617 0.28617 0.34664 0.31565 0.2676 0.22166 0.16678 0.28593 0.36068 0.4175 0.32193 0.2518 0.20246 0.24309 0.29833 0.30662 0.20932 0.12991 0.13588 0.18378 0.21479 0.33009 0.41108 0.41529 0.33956 0.32727 0.38851 0.4383 1.8854e+05 4.4287e+07 NaN NaN NaN NaN NaN NaN NaN NaN NaN NaN NaN NaN NaN NaN NaN NaN NaN NaN NaN NaN NaN NaN NaN 0.31913 0.31913 0.29605 0.29374 0.19131 0.20302 0.23804 0.3608 0.43783 0.46772 0.35132 0.25785 0.20351 0.24929 0.28895 0.29911 0.20743 0.15704 0.17798 0.26276 0.39181 0.54155 0.56991 0.45221 0.26004 0.2175 0.33341 1119.1 1.5075e+05 -9.2036e+13 NaN NaN NaN NaN NaN NaN NaN NaN NaN NaN NaN NaN NaN NaN NaN NaN NaN NaN NaN NaN NaN NaN NaN 0.2665 0.2665 0.3038 0.34203 0.23041 0.15708 0.12479 0.24128 0.36374 0.47912 0.43429 0.35607 0.25203 0.23599 0.27246 0.34143 0.26907 0.14637 0.056003 0.070076 0.16928 0.39979 0.57931 0.58723 0.43779 0.29026 0.54958 8.906e+06 NaN NaN NaN NaN NaN NaN NaN NaN NaN NaN NaN NaN NaN NaN NaN NaN NaN NaN NaN NaN NaN NaN NaN NaN NaN 0.26447 0.26447 0.27446 0.30824 0.29698 0.34527 0.3689 0.37666 0.28588 0.20743 0.17527 0.27687 0.3404 0.34813 0.28781 0.29232 0.33901 0.38117 0.36469 0.32564 0.27343 0.25472 0.25452 0.26697 0.29267 0.31943 12.448 -3.3112e+13 NaN NaN NaN NaN NaN NaN NaN NaN NaN NaN NaN NaN NaN NaN NaN NaN NaN NaN NaN NaN NaN NaN NaN NaN NaN 0.24966 0.24966 0.27913 0.30332 0.26076 0.26159 0.31024 0.39655 0.36466 0.29532 0.20789 0.24177 0.28889 0.32575 0.29873 0.25647 0.22589 0.25862 0.29273 0.35579 0.36467 0.34348 0.32484 0.33165 0.3364 0.35023 NaN NaN NaN NaN NaN NaN NaN NaN NaN NaN NaN NaN NaN NaN NaN NaN NaN NaN NaN NaN NaN NaN NaN NaN NaN NaN NaN 0.39764 0.39764 0.28146 0.30023 0.21937 0.17748 0.24491 0.37662 0.48073 0.4663 0.33482 0.26089 0.24589 0.32199 0.32557 0.27145 0.21471 0.19755 0.22217 0.35769 0.53686 0.64565 0.59196 0.44003 0.26773 -1.3208e+10 NaN NaN NaN NaN NaN NaN NaN NaN NaN NaN NaN NaN NaN NaN NaN NaN NaN NaN NaN NaN NaN NaN NaN NaN NaN NaN NaN 0.46847 0.46847 0.31811 0.34639 0.22222 0.14601 0.18019 0.31392 0.45048 0.48832 0.40135 0.30549 0.25059 0.29711 0.32514 0.31881 0.26677 0.24212 0.201 0.20959 0.33983 0.54061 0.63241 0.56317 NaN NaN NaN NaN NaN NaN NaN NaN NaN NaN NaN NaN NaN NaN NaN NaN NaN NaN NaN NaN NaN NaN NaN NaN NaN NaN NaN NaN NaN 0.32176 0.32176 0.30194 0.35717 0.36878 0.41404 0.37399 0.2824 0.18299 0.14288 0.21194 0.35165 0.38601 0.36092 0.31203 0.31444 0.37399 0.46589 0.44653 0.33496 0.22626 0.18347 0.22835 0.30104 NaN NaN NaN NaN NaN NaN NaN NaN NaN NaN NaN NaN NaN NaN NaN NaN NaN NaN NaN NaN NaN NaN NaN NaN NaN NaN NaN NaN NaN 0.31002 0.31002 0.3133 0.3471 0.35416 0.41919 0.44443 0.39299 0.25511 0.14971 0.17648 0.29256 0.33648 0.3516 0.33024 0.28526 0.28066 0.3677 0.43199 0.43132 0.35624 0.26241 0.21141 NaN NaN NaN NaN NaN NaN NaN NaN NaN NaN NaN NaN NaN NaN NaN NaN NaN NaN NaN NaN NaN NaN NaN NaN NaN NaN NaN NaN NaN NaN 0.43494 0.43494 0.29339 0.30535 0.22636 0.23918 0.35956 0.49113 0.56819 0.51131 0.361 0.2555 0.24647 0.33456 0.34073 0.26195 0.19254 0.20205 0.28333 0.45845 0.61063 0.68527 NaN NaN NaN NaN NaN NaN NaN NaN NaN NaN NaN NaN NaN NaN NaN NaN NaN NaN NaN NaN NaN NaN NaN NaN NaN NaN NaN NaN NaN NaN NaN 0.45379 0.45379 0.2961 0.3392 0.27635 0.30201 0.34993 0.43001 0.51513 0.50401 0.37474 0.21496 0.18472 0.29814 0.32358 0.27541 0.19846 0.25314 0.33447 0.43383 0.45897 NaN NaN NaN NaN NaN NaN NaN NaN NaN NaN NaN NaN NaN NaN NaN NaN NaN NaN NaN NaN NaN NaN NaN NaN NaN NaN NaN NaN NaN NaN NaN NaN 0.37298 0.37298 0.29723 0.37362 0.41687 0.50335 0.41228 0.25891 0.10066 0.059439 0.20563 0.40285 0.4708 0.39425 0.29213 0.33164 0.47527 0.60854 0.61114 0.47073 0.23834 NaN NaN NaN NaN NaN NaN NaN NaN NaN NaN NaN NaN NaN NaN NaN NaN NaN NaN NaN NaN NaN NaN NaN NaN NaN NaN NaN NaN NaN NaN NaN NaN 0.3 0.3 0.29723 0.37362 0.41687 0.50335 0.41228 0.25891 0.10066 0.059439 0.20563 0.40285 0.4708 0.39425 0.29213 0.33164 0.47527 0.60854 0.61114 0.47073 0.23834 NaN NaN NaN NaN NaN NaN NaN NaN NaN NaN NaN NaN NaN NaN NaN NaN NaN NaN NaN NaN NaN NaN NaN NaN NaN NaN NaN NaN NaN NaN 0.3 0.3 0.3 0.3 0.2961 0.3392 0.27635 0.30201 0.34993 0.43001 0.51513 0.50401 0.37474 0.21496 0.18472 0.29814 0.32358 0.27541 0.19846 0.25314 0.33447 0.43383 0.45897 NaN NaN NaN NaN NaN NaN NaN NaN NaN NaN NaN NaN NaN NaN NaN NaN NaN NaN NaN NaN NaN NaN NaN NaN NaN NaN NaN NaN NaN NaN 0.3 0.3 