 VARIABLES = "X", "Y", "q1", "q2", "q3", "q4","Pressure","Mach"
ZONE I=54 J=19 DATAPACKING=BLOCK VARLOCATION=([3,4,5,6,7,8]=CELLCENTERED)
-0.20389 -0.102 0 0.1019 0.20382 0.30578 0.40778 0.50982 0.61192 0.71406 0.81624 0.91845 1.0207 1.1229 1.2252 1.3274 1.4286 1.5315 1.6365 1.7442 1.8552 1.9854 2.0827 2.1873 2.2817 2.3692 2.4521 2.5324 2.6139 2.6986 2.7882 2.8843 2.9799 3.015 3.2119 3.3298 3.4427 3.5529 3.6613 3.7685 3.8746 3.9799 4.0845 4.1883 4.2914 4.3937 4.4955 4.5969 4.6979 4.7986 4.8993 5 5.1012 5.2019 -0.20389 -0.10195 0 0.10195 0.20391 0.3059 0.40793 0.51 0.6121 0.71425 0.81644 0.91866 1.0209 1.1232 1.2255 1.3278 1.4301 1.5335 1.6385 1.7456 1.8552 1.9575 2.0733 2.1772 2.273 2.3633 2.4498 2.5341 2.6193 2.7071 2.7984 2.8948 2.9983 3.1277 3.2166 3.3314 3.4432 3.5527 3.6607 3.7675 3.8734 3.9785 4.0829 4.1866 4.2896 4.3921 4.4941 4.5957 4.6969 4.798 4.899 5 5.1009 5.2019 -0.2038 -0.1019 0 0.1019 0.20382 0.30578 0.40778 0.50982 0.61192 0.71406 0.81624 0.91845 1.0207 1.1229 1.2252 1.3274 1.4286 1.5315 1.6365 1.7441 1.8552 2 2.1011 2.1984 2.2872 2.3712 2.4523 2.5323 2.6124 2.694 2.7785 2.8677 2.964 3 3.2119 3.3299 3.4427 3.5529 3.6613 3.7685 3.8746 3.9799 4.0845 4.1883 4.2914 4.3937 4.4955 4.5969 4.6979 4.7986 4.8993 5 5.1007 5.2014 -0.20389 -0.10195 0 0.10195 0.20391 0.3059 0.40793 0.51 0.6121 0.71425 0.81644 0.91866 1.0209 1.1232 1.2255 1.3278 1.4301 1.5335 1.6385 1.7456 1.8552 1.9672 2.0833 2.1842 2.2769 2.3648 2.45 2.534 2.6181 2.7037 2.7921 2.8852 2.9856 3.0983 3.2166 3.3314 3.4432 3.5527 3.6607 3.7675 3.8734 3.9785 4.0829 4.1866 4.2896 4.3921 4.4941 4.5957 4.6969 4.798 4.899 5 5.101 5.2019 -0.20397 -0.10199 0 0.10199 0.20399 0.30601 0.40806 0.51015 0.61227 0.71443 0.81663 0.91887 1.0211 1.1235 1.2259 1.3284 1.4311 1.5347 1.6395 1.7459 1.8539 1.9631 2.0722 2.1735 2.2687 2.3597 2.4482 2.5356 2.6231 2.712 2.8035 2.8991 3.0007 3.1095 3.2222 3.3342 3.4444 3.5532 3.6606 3.767 3.8726 3.9774 4.0816 4.1852 4.2882 4.3908 4.4929 4.5947 4.6962 4.7975 4.8988 5 5.1012 5.2024 -0.20404 -0.10202 0 0.10202 0.20405 0.3061 0.40818 0.51029 0.61243 0.7146 0.81681 0.91905 1.0213 1.1237 1.2261 1.3288 1.4317 1.5353 1.6398 1.7454 1.8519 1.9587 2.0644 2.1656 2.2623 2.3557 2.4469 2.5371 2.6275 2.719 2.8129 2.9102 3.012 3.1186 3.2279 3.3375 3.4463 3.5541 3.661 3.7669 3.8721 3.9767 4.0807 4.1841 4.2871 4.3897 4.4919 4.5938 4.6955 4.7971 4.8986 5 5.1014 5.2029 -0.20409 -0.10204 0 0.10204 0.2041 0.30618 0.40828 0.51041 0.61257 0.71476 0.81697 0.91922 1.0215 1.1239 1.2263 1.329 1.4319 1.5354 1.6396 1.7444 1.8497 1.9548 2.0587 2.1597 2.2574 2.3526 2.446 2.5386 2.6313 2.725 2.8207 2.9192 3.021 3.1261 3.2333 3.3411 3.4486 3.5555 3.6617 3.7671 3.872 3.9762 4.08 4.1833 4.2862 4.3888 4.491 4.5931 4.6949 4.7967 4.8984 5 5.1016 5.2033 -0.20413 -0.10207 0 0.10207 0.20415 0.30625 0.40838 0.51053 0.61271 0.71491 0.81712 0.91937 1.0216 1.124 1.2264 1.3291 1.4319 1.5352 1.6389 1.7431 1.8474 1.9515 2.0544 2.1552 2.2537 2.3503 2.4455 2.54 2.6346 2.7302 2.8273 2.9265 3.0283 3.1325 3.2383 3.3447 3.4511 3.5572 3.6627 3.7676 3.8721 3.976 4.0795 4.1827 4.2855 4.388 4.4903 4.5924 4.6944 4.7963 4.8982 5 5.1018 5.2037 -0.20417 -0.10209 0 0.10209 0.20419 0.30632 0.40847 0.51065 0.61285 0.71506 0.81727 0.9195 1.0218 1.1241 1.2264 1.329 1.4317 1.5348 1.6381 1.7417 1.8453 1.9486 2.0509 2.1518 2.2509 2.3486 2.4452 2.5414 2.6376 2.7346 2.8328 2.9327 3.0345 3.1381 3.2429 3.3483 3.4538 3.559 3.6639 3.7684 3.8724 3.976 4.0793 4.1822 4.2849 4.3874 4.4897 4.5919 4.694 4.796 4.898 5 5.102 5.204 -0.2042 -0.1021 0 0.1021 0.20422 0.30638 0.40856 0.51077 0.61299 0.71521 0.81742 0.91963 1.0218 1.1241 1.2264 1.3288 1.4314 1.5342 1.6372 1.7403 1.8434 1.9461 2.0481 2.1491 2.2488 2.3474 2.4452 2.5427 2.6402 2.7384 2.8375 2.938 3.0399 3.143 3.2471 3.3517 3.4565 3.561 3.6653 3.7693 3.8729 3.9762 4.0792 4.1819 4.2845 4.3869 4.4891 4.5914 4.6935 4.7957 4.8978 5 5.1022 5.2043 -0.20422 -0.10211 0 0.10211 0.20425 0.30644 0.40866 0.5109 0.61315 0.71538 0.81758 0.91976 1.0219 1.1241 1.2263 1.3285 1.4309 1.5334 1.6361 1.7388 1.8415 1.9439 2.0458 2.1469 2.2471 2.3465 2.4453 2.5439 2.6426 2.7418 2.8417 2.9426 3.0446 3.1475 3.2511 3.3551 3.4592 3.5632 3.6669 3.7704 3.8736 3.9765 4.0792 4.1817 4.2841 4.3864 4.4886 4.5909 4.6931 4.7954 4.8977 5 5.1023 5.2046 -0.20423 -0.10212 0 0.10212 0.20428 0.30649 0.40876 0.51105 0.61333 0.71558 0.81777 0.91991 1.022 1.124 1.2261 1.3282 1.4303 1.5326 1.635 1.7374 1.8398 1.942 2.0438 2.1451 2.2457 2.3458 2.4455 2.5451 2.6448 2.7448 2.8454 2.9468 3.0489 3.1517 3.2549 3.3584 3.462 3.5654 3.6687 3.7716 3.8744 3.9769 4.0793 4.1816 4.2838 4.3859 4.4881 4.5904 4.6927 4.7951 4.8975 5 5.1025 5.205 -0.20421 -0.10211 0 0.10211 0.20429 0.30655 0.40887 0.51122 0.61355 0.71582 0.81801 0.92009 1.0221 1.124 1.2259 1.3278 1.4297 1.5317 1.6338 1.736 1.8381 1.9402 2.042 2.1435 2.2446 2.3453 2.4458 2.5462 2.6468 2.7476 2.8488 2.9506 3.0529 3.1556 3.2586 3.3617 3.4648 3.5678 3.6705 3.773 3.8753 3.9775 4.0795 4.1815 4.2835 4.3855 4.4876 4.5898 4.6922 4.7947 4.8973 5 5.1027 5.2054 -0.20415 -0.10208 0 0.10208 0.20427 0.3066 0.40901 0.51144 0.61383 0.71613 0.8183 0.92033 1.0222 1.124 1.2257 1.3273 1.429 1.5307 1.6325 1.7345 1.8365 1.9384 2.0403 2.1421 2.2436 2.3449 2.4462 2.5473 2.6486 2.7502 2.852 2.9542 3.0567 3.1594 3.2622 3.365 3.4677 3.5702 3.6725 3.7745 3.8763 3.9781 4.0797 4.1814 4.2831 4.385 4.487 4.5892 4.6916 4.7942 4.8971 5 5.1029 5.2059 -0.20401 -0.102 0 0.102 0.20423 0.30664 0.40917 0.51171 0.61419 0.71653 0.81869 0.92065 1.0224 1.124 1.2254 1.3268 1.4282 1.5297 1.6312 1.7329 1.8348 1.9367 2.0387 2.1407 2.2427 2.3446 2.4465 2.5484 2.6504 2.7526 2.855 2.9576 3.0604 3.1632 3.2659 3.3684 3.4707 3.5728 3.6746 3.7761 3.8775 3.9787 4.08 4.1813 4.2827 4.3844 4.4863 4.5885 4.6909 4.7937 4.8967 5 5.1033 5.2065 -0.20369 -0.10184 0 0.10184 0.20412 0.30668 0.40936 0.51206 0.61465 0.71705 0.81921 0.92108 1.0227 1.1241 1.2252 1.3263 1.4274 1.5285 1.6298 1.7313 1.833 1.9349 2.037 2.1393 2.2417 2.3442 2.4468 2.5494 2.6522 2.7551 2.8581 2.9611 3.0641 3.167 3.2696 3.372 3.4739 3.5755 3.6768 3.7778 3.8787 3.9794 4.0802 4.1811 4.2822 4.3836 4.4854 4.5875 4.69 4.793 4.8963 5 5.1037 5.2075 -0.203 -0.1015 0 0.1015 0.20393 0.3067 0.40962 0.51252 0.61526 0.71774 0.81988 0.92165 1.0231 1.1242 1.2251 1.3258 1.4265 1.5273 1.6282 1.7295 1.831 1.933 2.0352 2.1378 2.2407 2.3438 2.447 2.5504 2.6539 2.7575 2.8611 2.9646 3.068 3.171 3.2736 3.3757 3.4773 3.5785 3.6792 3.7797 3.8799 3.9801 4.0804 4.1808 4.2816 4.3827 4.4843 4.5864 4.6889 4.792 4.8956 5 5.1044 5.2089 -0.20369 -0.10184 0 0.10184 0.20412 0.30668 0.40936 0.51206 0.61465 0.71705 0.81921 0.92108 1.0227 1.1241 1.2252 1.3263 1.4274 1.5285 1.6298 1.7313 1.833 1.9349 2.037 2.1393 2.2417 2.3442 2.4468 2.5494 2.6522 2.7551 2.8581 2.9611 3.0641 3.167 3.2696 3.372 3.4739 3.5755 3.6768 3.7778 3.8787 3.9794 4.0802 4.1811 4.2822 4.3836 4.4854 4.5875 4.69 4.793 4.8963 5 5.1037 5.2075 -0.203 -0.1015 0 0.1015 0.20393 0.3067 0.40962 0.51252 0.61526 0.71774 0.81988 0.92165 1.0231 1.1242 1.2251 1.3258 1.4265 1.5273 1.6283 1.7295 1.8311 1.933 2.0352 2.1378 2.2407 2.3438 2.447 2.5504 2.6539 2.7574 2.8611 2.9646 3.0679 3.171 3.2736 3.3757 3.4773 3.5785 3.6792 3.7797 3.8799 3.9801 4.0804 4.1808 4.2816 4.3827 4.4843 4.5864 4.6889 4.792 4.8956 5 5.103 5.2075 
-0.14283 -0.14283 -0.1428 -0.14283 -0.14285 -0.14288 -0.1429 -0.14293 -0.14296 -0.14301 -0.14307 -0.14316 -0.14328 -0.14345 -0.14369 -0.14404 -0.14456 -0.14535 -0.14664 -0.14891 -0.15356 -0.15252 -0.09116 -0.056614 -0.033968 -0.019856 -0.01286 -0.012262 -0.017914 -0.030185 -0.049924 -0.078655 -0.12603 -0.15088 -0.15059 -0.1473 -0.14565 -0.1447 -0.14411 -0.14373 -0.14347 -0.14329 -0.14316 -0.14307 -0.14301 -0.14296 -0.14293 -0.1429 -0.14287 -0.14285 -0.14283 -0.1428 -0.1428 -0.1428 -0.071429 -0.071416 -0.071402 -0.071416 -0.071427 -0.071438 -0.07145 -0.071464 -0.071482 -0.071505 -0.071537 -0.07158 -0.071641 -0.071726 -0.071847 -0.072021 -0.072279 -0.072675 -0.073321 -0.074466 -0.076799 -0.078988 -0.033665 -0.0012574 0.021142 0.035578 0.04291 0.043543 0.037601 0.024975 0.0053032 -0.02221 -0.059758 -0.075727 -0.075297 -0.073655 -0.072828 -0.072353 -0.072057 -0.071864 -0.071734 -0.071644 -0.071582 -0.071537 -0.071505 -0.071481 -0.071463 -0.071449 -0.071437 -0.071425 -0.071413 -0.071398 -0.071383 -0.071398 0 0 0 0 0 0 0 0 0 0 0 0 0 0 0 0 0 0 0 0 0 0 0.03124 0.05837 0.078478 0.09192 0.098881 0.099485 0.093827 0.081995 0.064109 0.04039 0.0113 0 0 0 0 0 0 0 0 0 0 0 0 0 0 0 0 0 0 0 0 0 0.071402 0.071416 0.071402 0.071416 0.071427 0.071438 0.07145 0.071464 0.071482 0.071505 0.071537 0.07158 0.071641 0.071726 0.071847 0.072021 0.072279 0.072675 0.073321 0.074466 0.076799 0.08267 0.10189 0.1219 0.13803 0.14919 0.15506 0.15557 0.15078 0.1409 0.12636 0.10816 0.089259 0.079361 0.075297 0.073655 0.072828 0.072353 0.072057 0.071864 0.071734 0.071644 0.071582 0.071537 0.071505 0.071481 0.071463 0.071449 0.071437 0.071425 0.071413 0.071398 0.071413 0.071398 0.14281 0.14283 0.14281 0.14283 0.14285 0.14288 0.1429 0.14293 0.14296 0.14301 0.14307 0.14315 0.14327 0.14343 0.14367 0.144 0.1445 0.14525 0.14644 0.14843 0.15203 0.15904 0.17243 0.18719 0.19984 0.20888 0.2137 0.21412 0.21015 0.20207 0.19049 0.17664 0.16314 0.15432 0.14949 0.14694 0.1455 0.14463 0.14407 0.1437 0.14345 0.14328 0.14316 0.14307 0.14301 0.14296 0.14292 0.1429 0.14287 0.14285 0.14283 0.1428 0.14283 0.1428 0.21421 0.21425 0.21421 0.21425 0.21428 0.21431 0.21434 0.21438 0.21443 0.2145 0.21459 0.21471 0.21488 0.21511 0.21544 0.21591 0.2166 0.21762 0.21918 0.22166 0.2257 0.23232 0.24235 0.25344 0.26327 0.27048 0.27438 0.2747 0.27146 0.26496 0.25582 0.24521 0.23503 0.2275 0.22268 0.21973 0.21792 0.21676 0.216 0.21549 0.21513 0.21489 0.21471 0.21459 0.2145 0.21443 0.21438 0.21434 0.21431 0.21427 0.21424 0.2142 0.21424 0.2142 0.28562 0.28567 0.28562 0.28567 0.28571 0.28575 0.28579 0.28584 0.2859 0.28598 0.28609 0.28624 0.28645 0.28674 0.28714 0.28772 0.28854 0.28974 0.29151 0.29416 0.29814 0.30397 0.31177 0.32025 0.32789 0.33358 0.33669 0.33693 0.33432 0.32913 0.32194 0.31373 0.30582 0.2995 0.29502 0.29202 0.29004 0.28871 0.28781 0.2872 0.28677 0.28647 0.28625 0.2861 0.28598 0.2859 0.28584 0.28579 0.28574 0.2857 0.28566 0.28561 0.28566 0.28561 0.35704 0.35709 0.35704 0.35709 0.35713 0.35718 0.35723 0.35728 0.35736 0.35745 0.35758 0.35775 0.35798 0.35831 0.35877 0.3594 0.3603 0.36158 0.36341 0.36602 0.3697 0.37469 0.38087 0.38744 0.39338 0.39785 0.40031 0.40049 0.3984 0.39428 0.38863 0.38221 0.37597 0.37071 0.36672 0.36386 0.36186 0.36047 0.3595 0.35882 0.35834 0.358 0.35776 0.35758 0.35745 0.35736 0.35728 0.35722 0.35717 0.35712 0.35707 0.35702 0.35707 0.35702 0.42845 0.42851 0.42845 0.42851 0.42856 0.42861 0.42866 0.42872 0.4288 0.4289 0.42904 0.42922 0.42947 0.42982 0.4303 0.43096 0.43188 0.43316 0.43494 0.43738 0.44065 0.44483 0.44976 0.4549 0.45953 0.46303 0.46496 0.46509 0.46343 0.46018 0.45574 0.45069 0.44572 0.44138 0.43791 0.4353 0.4334 0.43203 0.43105 0.43035 0.42985 0.42949 0.42923 0.42904 0.42891 0.4288 0.42872 0.42866 0.4286 0.42855 0.42849 0.42843 0.42849 0.42843 0.49987 0.49993 0.49987 0.49993 0.49998 0.50004 0.50009 0.50016 0.50023 0.50034 0.50048 0.50066 0.50092 0.50126 0.50174 0.50239 0.50329 0.50451 0.50616 0.50834 0.51116 0.51462 0.51856 0.52258 0.52619 0.52892 0.53043 0.53052 0.52921 0.52665 0.52316 0.5192 0.51524 0.51168 0.50874 0.50643 0.50469 0.50341 0.50247 0.50179 0.50129 0.50094 0.50067 0.50048 0.50034 0.50024 0.50016 0.50009 0.50003 0.49997 0.49991 0.49985 0.49991 0.49985 0.57129 0.57136 0.57129 0.57136 0.57141 0.57146 0.57152 0.57158 0.57166 0.57176 0.57189 0.57207 0.57231 0.57265 0.5731 0.57371 0.57454 0.57565 0.57711 0.579 0.58137 0.58419 0.58731 0.59045 0.59325 0.59537 0.59653 0.5966 0.59557 0.59357 0.59085 0.58774 0.5846 0.58173 0.57928 0.57731 0.57579 0.57463 0.57377 0.57314 0.57267 0.57233 0.57208 0.5719 0.57176 0.57166 0.57158 0.57151 0.57146 0.5714 0.57134 0.57127 0.57134 0.57127 0.64272 0.64278 0.64272 0.64278 0.64284 0.64289 0.64294 0.643 0.64307 0.64316 0.64328 0.64345 0.64367 0.64397 0.64438 0.64492 0.64565 0.64661 0.64786 0.64944 0.65137 0.65361 0.65605 0.65847 0.66062 0.66224 0.66312 0.66317 0.66237 0.66083 0.65874 0.65634 0.65389 0.65161 0.64963 0.648 0.64671 0.64572 0.64497 0.64441 0.64399 0.64368 0.64346 0.64329 0.64316 0.64307 0.643 0.64293 0.64288 0.64283 0.64277 0.6427 0.64277 0.6427 0.71415 0.71421 0.71415 0.71421 0.71426 0.71431 0.71435 0.71441 0.71447 0.71455 0.71465 0.71479 0.71499 0.71524 0.71559 0.71604 0.71665 0.71744 0.71845 0.71971 0.72122 0.72295 0.7248 0.72663 0.72823 0.72944 0.7301 0.73013 0.72953 0.72837 0.72679 0.72498 0.72312 0.72137 0.71983 0.71854 0.7175 0.71669 0.71607 0.71561 0.71526 0.715 0.7148 0.71466 0.71455 0.71447 0.71441 0.71435 0.7143 0.71426 0.7142 0.71413 0.7142 0.71413 0.78559 0.78565 0.78559 0.78565 0.78569 0.78573 0.78577 0.78581 0.78586 0.78592 0.78601 0.78612 0.78627 0.78647 0.78674 0.7871 0.78756 0.78817 0.78893 0.78987 0.79098 0.79224 0.79357 0.79488 0.79602 0.79688 0.79734 0.79736 0.79693 0.7961 0.79498 0.79368 0.79234 0.79106 0.78993 0.78898 0.7882 0.78759 0.78711 0.78675 0.78648 0.78628 0.78612 0.78601 0.78593 0.78586 0.78581 0.78577 0.78573 0.78569 0.78564 0.78557 0.78564 0.78557 0.85704 0.85709 0.85704 0.85709 0.85713 0.85715 0.85718 0.85721 0.85724 0.85729 0.85735 0.85742 0.85753 0.85767 0.85785 0.85809 0.85841 0.85882 0.85932 0.85995 0.86068 0.8615 0.86236 0.8632 0.86394 0.86449 0.86479 0.8648 0.86452 0.86398 0.86326 0.86241 0.86155 0.86072 0.85998 0.85934 0.85883 0.85842 0.8581 0.85786 0.85767 0.85753 0.85743 0.85735 0.85729 0.85724 0.85721 0.85718 0.85715 0.85712 0.85708 0.85702 0.85708 0.85702 0.9285 0.92854 0.9285 0.92854 0.92856 0.92858 0.92859 0.92861 0.92862 0.92865 0.92868 0.92872 0.92877 0.92884 0.92893 0.92905 0.92921 0.92942 0.92967 0.92998 0.93034 0.93075 0.93117 0.93159 0.93195 0.93222 0.93237 0.93237 0.93223 0.93197 0.93161 0.93119 0.93076 0.93035 0.92999 0.92968 0.92942 0.92922 0.92906 0.92893 0.92884 0.92877 0.92872 0.92868 0.92865 0.92862 0.92861 0.92859 0.92858 0.92856 0.92854 0.92849 0.92854 0.92849 1 1 1 1 1 1 1 1 1 1 1 1 1 1 1 1 1 1 1 1 1 1 1 1 1 1 1 1 1 1 1 1 1 1 1 1 1 1 1 1 1 1 1 1 1 1 1 1 1 1 1 1 1 1 1.0714 1.0715 1.0715 1.0715 1.0714 1.0714 1.0714 1.0714 1.0714 1.0714 1.0713 1.0713 1.0712 1.0712 1.0711 1.0709 1.0708 1.0706 1.0703 1.07 1.0697 1.0693 1.0688 1.0684 1.0681 1.0678 1.0676 1.0676 1.0678 1.068 1.0684 1.0688 1.0692 1.0696 1.07 1.0703 1.0706 1.0708 1.0709 1.0711 1.0712 1.0712 1.0713 1.0713 1.0714 1.0714 1.0714 1.0714 1.0714 1.0714 1.0715 1.0715 1.0716 1.0715 1.1429 1.1429 1.143 1.1429 1.1429 1.1428 1.1428 1.1428 1.1428 1.1427 1.1426 1.1426 1.1425 1.1423 1.1421 1.1419 1.1416 1.1412 1.1407 1.14 1.1393 1.1385 1.1377 1.1368 1.1361 1.1356 1.1353 1.1353 1.1355 1.1361 1.1368 1.1376 1.1385 1.1393 1.14 1.1406 1.1412 1.1416 1.1419 1.1421 1.1423 1.1425 1.1426 1.1426 1.1427 1.1428 1.1428 1.1428 1.1428 1.1429 1.1429 1.143 1.143 1.143 
1 1 1 1 1 1 1 1 1 1 1 1 1 1 1 1 1 1 1 1 1 1 1 1 1 1 1 1 1 1 1 1 1 1 1 1 1 1 1 1 1 1 1 1 1 1 1 1 1 1 1 1 1 1 1 1 1 1 1 1 1 1 1 1 1 1 1 1 1 1 1 1 1 1 1 1 1 1 1 1 1 1 1 1 1 1 1 1 1 1 1 1 1 1 1 1 1 1 1 1 1 1 1 1 1 1 1 1 1 1 1 1 1 1 1 1 1 1 1 1 1 1 1 1 1 1 1 1 1 1 1 1 1 1 1 1 1 1 1 1 1 1 1 1 1 1 1 1 1 1 1 1 1 1 1 1 1 1 1 1 1 1 1 1 1 1 1 1 1 1 1 1 1 1 1 1 1 1 1 1 1 1 1 1 1 1 1 1 1 1 1 1 1 1 1 1 1 1 1 1 1 1 1 1 1 1 1 1 1 1 1 1 1 1 1 1 1 1 1 1 1 1 1 1 1 1 1 1 1 1 1 1 1 1 1 1 1 1 1 1 1 1 1 1 1 1 1 1 1 1 1 1 1 1 1 1 1 1 1 1 1 1 1 1 1 1 1 1 1 1 1 1 1 1 1 1 1 1 1 1 1 1 1 1 1 1 1 1 1 1 1 1 1 1 1 1 1 1 1 1 1 1 1 1 1 1 1 1 1 1 1 1 1 1 1 1 1 1 1 1 1 1 1 1 1 1 1 1 1 1 1 1 1 1 1 1 1 1 1 1 1 1 1 1 1 1 1 1 1 1 1 1 1 1 1 1 1 1 1 1 1 1 1 1 1 1 1 1 1 1 1 1 1 1 1 1 1 1 1 1 1 1 1 1 1 1 1 1 1 1 1 1 1 1 1 1 1 1 1 1 1 1 1 1 1 1 1 1 1 1 1 1 1 1 1 1 1 1 1 1 1 1 1 1 1 1 1 1 1 1 1 1 1 1 1 1 1 1 1 1 1 1 1 1 1 1 1 1 1 1 1 1 1 1 1 1 1 1 1 1 1 1 1 1 1 1 1 1 1 1 1 1 1 1 1 1 1 1 1 1 1 1 1 1 1 1 1 1 1 1 1 1 1 1 1 1 1 1 1 1 1 1 1 1 1 1 1 1 1 1 1 1 1 1 1 1 1 1 1 1 1 1 1 1 1 1 1 1 1 1 1 1 1 1 1 1 1 1 1 1 1 1 1 1 1 1 1 1 1 1 1 1 1 1 1 1 1 1 1 1 1 1 1 1 1 1 1 1 1 1 1 1 1 1 1 1 1 1 1 1 1 1 1 1 1 1 1 1 1 1 1 1 1 1 1 1 1 1 1 1 1 1 1 1 1 1 1 1 1 1 1 1 1 1 1 1 1 1 1 1 1 1 1 1 1 1 1 1 1 1 1 1 1 1 1 1 1 1 1 1 1 1 1 1 1 1 1 1 1 1 1 1 1 1 1 1 1 1 1 1 1 1 1 1 1 1 1 1 1 1 1 1 1 1 1 1 1 1 1 1 1 1 1 1 1 1 1 1 1 1 1 1 1 1 1 1 1 1 1 1 1 1 1 1 1 1 1 1 1 1 1 1 1 1 1 1 1 1 1 1 1 1 1 1 1 1 1 1 1 1 1 1 1 1 1 1 1 1 1 1 1 1 1 1 1 1 1 1 1 1 1 1 1 1 1 1 1 1 1 1 1 1 1 1 1 1 1 1 1 1 1 1 1 1 1 1 1 1 1 1 1 1 1 1 1 1 1 1 1 1 1 1 1 1 1 1 1 1 1 1 1 1 1 1 1 1 1 1 1 1 1 1 1 1 1 1 1 1 1 1 1 1 1 1 1 1 1 1 1 1 1 1 1 1 1 1 1 1 1 1 1 1 1 1 1 1 1 1 1 1 1 1 1 1 1 1 1 1 1 1 1 1 1 1 1 1 1 1 1 1 1 1 1 1 1 1 1 1 1 1 1 1 1 1 1 1 1 1 1 1 1 1 1 1 1 1 1 1 1 1 1 1 1 1 1 1 1 1 1 1 1 1 1 1 1 1 1 1 1 1 1 1 1 1 1 1 1 1 1 1 1 1 1 1 1 1 1 1 1 1 1 1 1 1 1 1 1 1 1 1 1 1 1 1 
0.3 0.3 0.3 0.3 0.3 0.3 0.3 0.3 0.3 0.3 0.3 0.3 0.3 0.3 0.3 0.3 0.3 0.3 0.3 0.3 0.3 0.24774 0.25669 0.27075 0.285 0.29562 0.29997 0.29702 0.28764 0.27426 0.26035 0.24983 0.24631 0.3 0.3 0.3 0.3 0.3 0.3 0.3 0.3 0.3 0.3 0.3 0.3 0.3 0.3 0.3 0.3 0.3 0.3 0.3 0.3 0.3 0.3 0.3 0.3 0.3 0.3 0.3 0.3 0.3 0.3 0.3 0.3 0.3 0.3 0.3 0.3 0.3 0.3 0.3 0.3 0.3 0.24774 0.25669 0.27075 0.285 0.29562 0.29997 0.29702 0.28764 0.27426 0.26035 0.24983 0.24631 0.3 0.3 0.3 0.3 0.3 0.3 0.3 0.3 0.3 0.3 0.3 0.3 0.3 0.3 0.3 0.3 0.3 0.3 0.3 0.3 0.3 0.3 0.3 0.3 0.3 0.3 0.3 0.3 0.3 0.3 0.3 0.3 0.3 0.3 0.3 0.3 0.3 0.3 0.3 0.3 0.3 0.3 0.3 0.3 0.3 0.3 0.3 0.3 0.3 0.3 0.3 0.3 0.3 0.3 0.3 0.3 0.3 0.3 0.3 0.3 0.3 0.3 0.3 0.3 0.3 0.3 0.3 0.3 0.3 0.3 0.3 0.3 0.3 0.3 0.3 0.3 0.3 0.3 0.3 0.3 0.3 0.3 0.3 0.3 0.3 0.3 0.3 0.3 0.3 0.3 0.3 0.3 0.3 0.3 0.3 0.3 0.3 0.3 0.3 0.3 0.3 0.3 0.3 0.3 0.3 0.3 0.3 0.3 0.3 0.3 0.3 0.3 0.3 0.3 0.3 0.3 0.3 0.3 0.3 0.3 0.3 0.3 0.3 0.3 0.3 0.3 0.3 0.3 0.3 0.3 0.3 0.3 0.3 0.3 0.3 0.3 0.3 0.3 0.3 0.3 0.3 0.3 0.3 0.3 0.3 0.3 0.3 0.3 0.3 0.3 0.3 0.3 0.3 0.3 0.3 0.3 0.3 0.3 0.3 0.3 0.3 0.3 0.3 0.3 0.3 0.3 0.3 0.3 0.3 0.3 0.3 0.3 0.3 0.3 0.3 0.3 0.3 0.3 0.3 0.3 0.3 0.3 0.3 0.3 0.3 0.3 0.3 0.3 0.3 0.3 0.3 0.3 0.3 0.3 0.3 0.3 0.3 0.3 0.3 0.3 0.3 0.3 0.3 0.3 0.3 0.3 0.3 0.3 0.3 0.3 0.3 0.3 0.3 0.3 0.3 0.3 0.3 0.3 0.3 0.3 0.3 0.3 0.3 0.3 0.3 0.3 0.3 0.3 0.3 0.3 0.3 0.3 0.3 0.3 0.3 0.3 0.3 0.3 0.3 0.3 0.3 0.3 0.3 0.3 0.3 0.3 0.3 0.3 0.3 0.3 0.3 0.3 0.3 0.3 0.3 0.3 0.3 0.3 0.3 0.3 0.3 0.3 0.3 0.3 0.3 0.3 0.3 0.3 0.3 0.3 0.3 0.3 0.3 0.3 0.3 0.3 0.3 0.3 0.3 0.3 0.3 0.3 0.3 0.3 0.3 0.3 0.3 0.3 0.3 0.3 0.3 0.3 0.3 0.3 0.3 0.3 0.3 0.3 0.3 0.3 0.3 0.3 0.3 0.3 0.3 0.3 0.3 0.3 0.3 0.3 0.3 0.3 0.3 0.3 0.3 0.3 0.3 0.3 0.3 0.3 0.3 0.3 0.3 0.3 0.3 0.3 0.3 0.3 0.3 0.3 0.3 0.3 0.3 0.3 0.3 0.3 0.3 0.3 0.3 0.3 0.3 0.3 0.3 0.3 0.3 0.3 0.3 0.3 0.3 0.3 0.3 0.3 0.3 0.3 0.3 0.3 0.3 0.3 0.3 0.3 0.3 0.3 0.3 0.3 0.3 0.3 0.3 0.3 0.3 0.3 0.3 0.3 0.3 0.3 0.3 0.3 0.3 0.3 0.3 0.3 0.3 0.3 0.3 0.3 0.3 0.3 0.3 0.3 0.3 0.3 0.3 0.3 0.3 0.3 0.3 0.3 0.3 0.3 0.3 0.3 0.3 0.3 0.3 0.3 0.3 0.3 0.3 0.3 0.3 0.3 0.3 0.3 0.3 0.3 0.3 0.3 0.3 0.3 0.3 0.3 0.3 0.3 0.3 0.3 0.3 0.3 0.3 0.3 0.3 0.3 0.3 0.3 0.3 0.3 0.3 0.3 0.3 0.3 0.3 0.3 0.3 0.3 0.3 0.3 0.3 0.3 0.3 0.3 0.3 0.3 0.3 0.3 0.3 0.3 0.3 0.3 0.3 0.3 0.3 0.3 0.3 0.3 0.3 0.3 0.3 0.3 0.3 0.3 0.3 0.3 0.3 0.3 0.3 0.3 0.3 0.3 0.3 0.3 0.3 0.3 0.3 0.3 0.3 0.3 0.3 0.3 0.3 0.3 0.3 0.3 0.3 0.3 0.3 0.3 0.3 0.3 0.3 0.3 0.3 0.3 0.3 0.3 0.3 0.3 0.3 0.3 0.3 0.3 0.3 0.3 0.3 0.3 0.3 0.3 0.3 0.3 0.3 0.3 0.3 0.3 0.3 0.3 0.3 0.3 0.3 0.3 0.3 0.3 0.3 0.3 0.3 0.3 0.3 0.3 0.3 0.3 0.3 0.3 0.3 0.3 0.3 0.3 0.3 0.3 0.3 0.3 0.3 0.3 0.3 0.3 0.3 0.3 0.3 0.3 0.3 0.3 0.3 0.3 0.3 0.3 0.3 0.3 0.3 0.3 0.3 0.3 0.3 0.3 0.3 0.3 0.3 0.3 0.3 0.3 0.3 0.3 0.3 0.3 0.3 0.3 0.3 0.3 0.3 0.3 0.3 0.3 0.3 0.3 0.3 0.3 0.3 0.3 0.3 0.3 0.3 0.3 0.3 0.3 0.3 0.3 0.3 0.3 0.3 0.3 0.3 0.3 0.3 0.3 0.3 0.3 0.3 0.3 0.3 0.3 0.3 0.3 0.3 0.3 0.3 0.3 0.3 0.3 0.3 0.3 0.3 0.3 0.3 0.3 0.3 0.3 0.3 0.3 0.3 0.3 0.3 0.3 0.3 0.3 0.3 0.3 0.3 0.3 0.3 0.3 0.3 0.3 0.3 0.3 0.3 0.3 0.3 0.3 0.3 0.3 0.3 0.3 0.3 0.3 0.3 0.3 0.3 0.3 0.3 0.3 0.3 0.3 0.3 0.3 0.3 0.3 0.3 0.3 0.3 0.3 0.3 0.3 0.3 0.3 0.3 0.3 0.3 0.3 0.3 0.3 0.3 0.3 0.3 0.3 0.3 0.3 0.3 0.3 0.3 0.3 0.3 0.3 0.3 0.3 0.3 0.3 0.3 0.3 0.3 0.3 0.3 0.3 0.3 0.3 0.3 0.3 0.3 0.3 0.3 0.3 0.3 0.3 0.3 0.3 0.3 0.3 0.3 0.3 0.3 0.3 0.3 0.3 0.3 0.3 0.3 0.3 0.3 0.3 0.3 0.3 0.3 0.3 0.3 0.3 0.3 0.3 0.3 0.3 0.3 0.3 0.3 0.3 0.3 0.3 0.3 0.3 0.3 0.3 0.3 0.3 0.3 0.3 0.3 0.3 0.3 0.3 0.3 0.3 0.3 0.3 0.3 0.3 0.3 0.3 0.3 0.3 0.3 0.3 0.3 0.3 0.3 0.3 0.3 0.3 0.3 0.3 0.3 0.3 0.3 0.3 0.3 0.3 0.3 0.3 0.3 0.3 0.3 0.3 0.3 0.3 0.3 0.3 0.3 0.3 0.3 0.3 0.3 0.3 0.3 0.3 0.3 0.3 0.3 0.3 0.3 0.3 0.3 0.3 0.3 0.3 0.3 0.3 0.3 0.3 0.3 0.3 0.3 0.3 0.3 0.3 0.3 0.3 0.3 0.3 0.3 0.3 0.3 0.3 0.3 0.3 0.3 0.3 0.3 0.3 0.3 0.3 0.3 0.3 0.3 0.3 0.3 0.3 0.3 0.3 0.3 0.3 0.3 0.3 0.3 0.3 0.3 0.3 0.3 0.3 0.3 0.3 0.3 0.3 0.3 0.3 0.3 0.3 0.3 0.3 
0 0 0 0 0 0 0 0 0 0 0 0 0 0 0 0 0 0 0 0 0 0.1692 0.15528 0.1292 0.093682 0.051079 0.004533 -0.042166 -0.085236 -0.12158 -0.14905 -0.16609 -0.17126 0 0 0 0 0 0 0 0 0 0 0 0 0 0 0 0 0 0 0 0 0 0 0 0 0 0 0 0 0 0 0 0 0 0 0 0 0 0 0 0 0 0.1692 0.15528 0.1292 0.093682 0.051079 0.004533 -0.042166 -0.085236 -0.12158 -0.14905 -0.16609 -0.17126 0 0 0 0 0 0 0 0 0 0 0 0 0 0 0 0 0 0 0 0 0 0 0 0 0 0 0 0 0 0 0 0 0 0 0 0 0 0 0 0 0 0 0 0 0 0 0 0 0 0 0 0 0 0 0 0 0 0 0 0 0 0 0 0 0 0 0 0 0 0 0 0 0 0 0 0 0 0 0 0 0 0 0 0 0 0 0 0 0 0 0 0 0 0 0 0 0 0 0 0 0 0 0 0 0 0 0 0 0 0 0 0 0 0 0 0 0 0 0 0 0 0 0 0 0 0 0 0 0 0 0 0 0 0 0 0 0 0 0 0 0 0 0 0 0 0 0 0 0 0 0 0 0 0 0 0 0 0 0 0 0 0 0 0 0 0 0 0 0 0 0 0 0 0 0 0 0 0 0 0 0 0 0 0 0 0 0 0 0 0 0 0 0 0 0 0 0 0 0 0 0 0 0 0 0 0 0 0 0 0 0 0 0 0 0 0 0 0 0 0 0 0 0 0 0 0 0 0 0 0 0 0 0 0 0 0 0 0 0 0 0 0 0 0 0 0 0 0 0 0 0 0 0 0 0 0 0 0 0 0 0 0 0 0 0 0 0 0 0 0 0 0 0 0 0 0 0 0 0 0 0 0 0 0 0 0 0 0 0 0 0 0 0 0 0 0 0 0 0 0 0 0 0 0 0 0 0 0 0 0 0 0 0 0 0 0 0 0 0 0 0 0 0 0 0 0 0 0 0 0 0 0 0 0 0 0 0 0 0 0 0 0 0 0 0 0 0 0 0 0 0 0 0 0 0 0 0 0 0 0 0 0 0 0 0 0 0 0 0 0 0 0 0 0 0 0 0 0 0 0 0 0 0 0 0 0 0 0 0 0 0 0 0 0 0 0 0 0 0 0 0 0 0 0 0 0 0 0 0 0 0 0 0 0 0 0 0 0 0 0 0 0 0 0 0 0 0 0 0 0 0 0 0 0 0 0 0 0 0 0 0 0 0 0 0 0 0 0 0 0 0 0 0 0 0 0 0 0 0 0 0 0 0 0 0 0 0 0 0 0 0 0 0 0 0 0 0 0 0 0 0 0 0 0 0 0 0 0 0 0 0 0 0 0 0 0 0 0 0 0 0 0 0 0 0 0 0 0 0 0 0 0 0 0 0 0 0 0 0 0 0 0 0 0 0 0 0 0 0 0 0 0 0 0 0 0 0 0 0 0 0 0 0 0 0 0 0 0 0 0 0 0 0 0 0 0 0 0 0 0 0 0 0 0 0 0 0 0 0 0 0 0 0 0 0 0 0 0 0 0 0 0 0 0 0 0 0 0 0 0 0 0 0 0 0 0 0 0 0 0 0 0 0 0 0 0 0 0 0 0 0 0 0 0 0 0 0 0 0 0 0 0 0 0 0 0 0 0 0 0 0 0 0 0 0 0 0 0 0 0 0 0 0 0 0 0 0 0 0 0 0 0 0 0 0 0 0 0 0 0 0 0 0 0 0 0 0 0 0 0 0 0 0 0 0 0 0 0 0 0 0 0 0 0 0 0 0 0 0 0 0 0 0 0 0 0 0 0 0 0 0 0 0 0 0 0 0 0 0 0 0 0 0 0 0 0 0 0 0 0 0 0 0 0 0 0 0 0 0 0 0 0 0 0 0 0 0 0 0 0 0 0 0 0 0 0 0 0 0 0 0 0 0 0 0 0 0 0 0 0 0 0 0 0 0 0 0 0 0 0 0 0 0 0 0 0 0 0 0 0 0 0 0 0 0 0 0 0 0 0 0 0 0 0 0 0 0 0 0 0 0 0 0 0 0 0 0 0 0 0 0 0 0 0 0 0 0 0 0 0 0 0 0 0 0 0 0 0 0 0 0 0 0 0 0 0 0 0 0 0 0 0 0 0 0 0 0 0 0 0 0 0 0 0 0 0 0 0 0 0 0 0 0 0 0 0 0 0 
1.7226 1.7226 1.7226 1.7226 1.7226 1.7226 1.7226 1.7226 1.7226 1.7226 1.7226 1.7226 1.7226 1.7226 1.7226 1.7226 1.7226 1.7226 1.7226 1.7226 1.7226 1.7226 1.7226 1.7226 1.7226 1.7226 1.7226 1.7226 1.7226 1.7226 1.7226 1.7226 1.7226 1.7226 1.7226 1.7226 1.7226 1.7226 1.7226 1.7226 1.7226 1.7226 1.7226 1.7226 1.7226 1.7226 1.7226 1.7226 1.7226 1.7226 1.7226 1.7226 1.7226 1.7226 1.7226 1.7226 1.7226 1.7226 1.7226 1.7226 1.7226 1.7226 1.7226 1.7226 1.7226 1.7226 1.7226 1.7226 1.7226 1.7226 1.7226 1.7226 1.7226 1.7226 1.7226 1.7226 1.7226 1.7226 1.7226 1.7226 1.7226 1.7226 1.7226 1.7226 1.7226 1.7226 1.7226 1.7226 1.7226 1.7226 1.7226 1.7226 1.7226 1.7226 1.7226 1.7226 1.7226 1.7226 1.7226 1.7226 1.7226 1.7226 1.7226 1.7226 1.7226 1.7226 1.7226 1.7226 1.7226 1.7226 1.7226 1.7226 1.7226 1.7226 1.7226 1.7226 1.7226 1.7226 1.7226 1.7226 1.7226 1.7226 1.7226 1.7226 1.7226 1.7226 1.7226 1.7226 1.7226 1.7226 1.7226 1.7226 1.7226 1.7226 1.7226 1.7226 1.7226 1.7226 1.7226 1.7226 1.7226 1.7226 1.7226 1.7226 1.7226 1.7226 1.7226 1.7226 1.7226 1.7226 1.7226 1.7226 1.7226 1.7226 1.7226 1.7226 1.7226 1.7226 1.7226 1.7226 1.7226 1.7226 1.7226 1.7226 1.7226 1.7226 1.7226 1.7226 1.7226 1.7226 1.7226 1.7226 1.7226 1.7226 1.7226 1.7226 1.7226 1.7226 1.7226 1.7226 1.7226 1.7226 1.7226 1.7226 1.7226 1.7226 1.7226 1.7226 1.7226 1.7226 1.7226 1.7226 1.7226 1.7226 1.7226 1.7226 1.7226 1.7226 1.7226 1.7226 1.7226 1.7226 1.7226 1.7226 1.7226 1.7226 1.7226 1.7226 1.7226 1.7226 1.7226 1.7226 1.7226 1.7226 1.7226 1.7226 1.7226 1.7226 1.7226 1.7226 1.7226 1.7226 1.7226 1.7226 1.7226 1.7226 1.7226 1.7226 1.7226 1.7226 1.7226 1.7226 1.7226 1.7226 1.7226 1.7226 1.7226 1.7226 1.7226 1.7226 1.7226 1.7226 1.7226 1.7226 1.7226 1.7226 1.7226 1.7226 1.7226 1.7226 1.7226 1.7226 1.7226 1.7226 1.7226 1.7226 1.7226 1.7226 1.7226 1.7226 1.7226 1.7226 1.7226 1.7226 1.7226 1.7226 1.7226 1.7226 1.7226 1.7226 1.7226 1.7226 1.7226 1.7226 1.7226 1.7226 1.7226 1.7226 1.7226 1.7226 1.7226 1.7226 1.7226 1.7226 1.7226 1.7226 1.7226 1.7226 1.7226 1.7226 1.7226 1.7226 1.7226 1.7226 1.7226 1.7226 1.7226 1.7226 1.7226 1.7226 1.7226 1.7226 1.7226 1.7226 1.7226 1.7226 1.7226 1.7226 1.7226 1.7226 1.7226 1.7226 1.7226 1.7226 1.7226 1.7226 1.7226 1.7226 1.7226 1.7226 1.7226 1.7226 1.7226 1.7226 1.7226 1.7226 1.7226 1.7226 1.7226 1.7226 1.7226 1.7226 1.7226 1.7226 1.7226 1.7226 1.7226 1.7226 1.7226 1.7226 1.7226 1.7226 1.7226 1.7226 1.7226 1.7226 1.7226 1.7226 1.7226 1.7226 1.7226 1.7226 1.7226 1.7226 1.7226 1.7226 1.7226 1.7226 1.7226 1.7226 1.7226 1.7226 1.7226 1.7226 1.7226 1.7226 1.7226 1.7226 1.7226 1.7226 1.7226 1.7226 1.7226 1.7226 1.7226 1.7226 1.7226 1.7226 1.7226 1.7226 1.7226 1.7226 1.7226 1.7226 1.7226 1.7226 1.7226 1.7226 1.7226 1.7226 1.7226 1.7226 1.7226 1.7226 1.7226 1.7226 1.7226 1.7226 1.7226 1.7226 1.7226 1.7226 1.7226 1.7226 1.7226 1.7226 1.7226 1.7226 1.7226 1.7226 1.7226 1.7226 1.7226 1.7226 1.7226 1.7226 1.7226 1.7226 1.7226 1.7226 1.7226 1.7226 1.7226 1.7226 1.7226 1.7226 1.7226 1.7226 1.7226 1.7226 1.7226 1.7226 1.7226 1.7226 1.7226 1.7226 1.7226 1.7226 1.7226 1.7226 1.7226 1.7226 1.7226 1.7226 1.7226 1.7226 1.7226 1.7226 1.7226 1.7226 1.7226 1.7226 1.7226 1.7226 1.7226 1.7226 1.7226 1.7226 1.7226 1.7226 1.7226 1.7226 1.7226 1.7226 1.7226 1.7226 1.7226 1.7226 1.7226 1.7226 1.7226 1.7226 1.7226 1.7226 1.7226 1.7226 1.7226 1.7226 1.7226 1.7226 1.7226 1.7226 1.7226 1.7226 1.7226 1.7226 1.7226 1.7226 1.7226 1.7226 1.7226 1.7226 1.7226 1.7226 1.7226 1.7226 1.7226 1.7226 1.7226 1.7226 1.7226 1.7226 1.7226 1.7226 1.7226 1.7226 1.7226 1.7226 1.7226 1.7226 1.7226 1.7226 1.7226 1.7226 1.7226 1.7226 1.7226 1.7226 1.7226 1.7226 1.7226 1.7226 1.7226 1.7226 1.7226 1.7226 1.7226 1.7226 1.7226 1.7226 1.7226 1.7226 1.7226 1.7226 1.7226 1.7226 1.7226 1.7226 1.7226 1.7226 1.7226 1.7226 1.7226 1.7226 1.7226 1.7226 1.7226 1.7226 1.7226 1.7226 1.7226 1.7226 1.7226 1.7226 1.7226 1.7226 1.7226 1.7226 1.7226 1.7226 1.7226 1.7226 1.7226 1.7226 1.7226 1.7226 1.7226 1.7226 1.7226 1.7226 1.7226 1.7226 1.7226 1.7226 1.7226 1.7226 1.7226 1.7226 1.7226 1.7226 1.7226 1.7226 1.7226 1.7226 1.7226 1.7226 1.7226 1.7226 1.7226 1.7226 1.7226 1.7226 1.7226 1.7226 1.7226 1.7226 1.7226 1.7226 1.7226 1.7226 1.7226 1.7226 1.7226 1.7226 1.7226 1.7226 1.7226 1.7226 1.7226 1.7226 1.7226 1.7226 1.7226 1.7226 1.7226 1.7226 1.7226 1.7226 1.7226 1.7226 1.7226 1.7226 1.7226 1.7226 1.7226 1.7226 1.7226 1.7226 1.7226 1.7226 1.7226 1.7226 1.7226 1.7226 1.7226 1.7226 1.7226 1.7226 1.7226 1.7226 1.7226 1.7226 1.7226 1.7226 1.7226 1.7226 1.7226 1.7226 1.7226 1.7226 1.7226 1.7226 1.7226 1.7226 1.7226 1.7226 1.7226 1.7226 1.7226 1.7226 1.7226 1.7226 1.7226 1.7226 1.7226 1.7226 1.7226 1.7226 1.7226 1.7226 1.7226 1.7226 1.7226 1.7226 1.7226 1.7226 1.7226 1.7226 1.7226 1.7226 1.7226 1.7226 1.7226 1.7226 1.7226 1.7226 1.7226 1.7226 1.7226 1.7226 1.7226 1.7226 1.7226 1.7226 1.7226 1.7226 1.7226 1.7226 1.7226 1.7226 1.7226 1.7226 1.7226 1.7226 1.7226 1.7226 1.7226 1.7226 1.7226 1.7226 1.7226 1.7226 1.7226 1.7226 1.7226 1.7226 1.7226 1.7226 1.7226 1.7226 1.7226 1.7226 1.7226 1.7226 1.7226 1.7226 1.7226 1.7226 1.7226 1.7226 1.7226 1.7226 1.7226 1.7226 1.7226 1.7226 1.7226 1.7226 1.7226 1.7226 1.7226 1.7226 1.7226 1.7226 1.7226 1.7226 1.7226 1.7226 1.7226 1.7226 1.7226 1.7226 1.7226 1.7226 1.7226 1.7226 1.7226 1.7226 1.7226 1.7226 1.7226 1.7226 1.7226 1.7226 1.7226 1.7226 1.7226 1.7226 1.7226 1.7226 1.7226 1.7226 1.7226 1.7226 1.7226 1.7226 1.7226 1.7226 1.7226 1.7226 1.7226 1.7226 1.7226 1.7226 1.7226 1.7226 1.7226 1.7226 1.7226 1.7226 1.7226 1.7226 1.7226 1.7226 1.7226 1.7226 1.7226 1.7226 1.7226 1.7226 1.7226 1.7226 1.7226 1.7226 1.7226 1.7226 1.7226 1.7226 1.7226 1.7226 1.7226 1.7226 1.7226 1.7226 1.7226 1.7226 1.7226 1.7226 1.7226 1.7226 1.7226 1.7226 1.7226 1.7226 1.7226 1.7226 1.7226 1.7226 1.7226 1.7226 1.7226 1.7226 1.7226 1.7226 1.7226 1.7226 1.7226 1.7226 1.7226 1.7226 1.7226 1.7226 1.7226 1.7226 1.7226 1.7226 1.7226 1.7226 1.7226 1.7226 1.7226 1.7226 1.7226 1.7226 1.7226 1.7226 1.7226 1.7226 1.7226 1.7226 1.7226 1.7226 1.7226 1.7226 1.7226 1.7226 1.7226 1.7226 1.7226 1.7226 1.7226 1.7226 1.7226 1.7226 1.7226 1.7226 1.7226 1.7226 1.7226 1.7226 1.7226 1.7226 1.7226 1.7226 1.7226 1.7226 1.7226 1.7226 1.7226 1.7226 1.7226 1.7226 1.7226 1.7226 1.7226 1.7226 1.7226 1.7226 1.7226 1.7226 1.7226 1.7226 1.7226 1.7226 1.7226 1.7226 1.7226 1.7226 1.7226 1.7226 1.7226 1.7226 1.7226 1.7226 1.7226 1.7226 1.7226 1.7226 1.7226 1.7226 1.7226 1.7226 1.7226 1.7226 1.7226 1.7226 1.7226 1.7226 1.7226 1.7226 1.7226 1.7226 1.7226 1.7226 1.7226 1.7226 1.7226 1.7226 1.7226 1.7226 1.7226 1.7226 1.7226 1.7226 1.7226 1.7226 1.7226 1.7226 1.7226 1.7226 1.7226 1.7226 1.7226 1.7226 