 VARIABLES = "X", "Y", "q1", "q2", "q3", "q4"
ZONE I=53 J=18 DATAPACKING=BLOCK VARLOCATION=([3,4,5,6]=CELLCENTERED)